<?xml version="1.0" encoding="UTF-8"?>

<!-- generated on 07/25/24 23:56:55 by Eclipse SUMO GUI Version 1.8.0
<configuration xmlns:xsi="http://www.w3.org/2001/XMLSchema-instance" xsi:noNamespaceSchemaLocation="http://sumo.dlr.de/xsd/sumoConfiguration.xsd">

    <input>
        <net-file value="maps/map1.net.xml"/>
        <route-files value="maps/map1.rou.xml"/>
    </input>

    <output>
        <tripinfo-output value="tripinfo.xml"/>
    </output>

    <time>
        <begin value="0"/>
        <end value="10000"/>
    </time>

    <report>
        <verbose value="true"/>
        <no-step-log value="true"/>
    </report>

    <traci_server>
        <remote-port value="51171"/>
    </traci_server>

</configuration>
-->

<tripinfos xmlns:xsi="http://www.w3.org/2001/XMLSchema-instance" xsi:noNamespaceSchemaLocation="http://sumo.dlr.de/xsd/tripinfo_file.xsd">
    <tripinfo id="3" depart="3.00" departLane="875229037_0" departPos="5.10" departSpeed="0.00" departDelay="0.00" arrival="14.00" arrivalLane="1177158045_0" arrivalPos="0.20" arrivalSpeed="21.45" duration="11.00" routeLength="113.91" waitingTime="0.00" waitingCount="0" stopTime="0.00" timeLoss="6.01" rerouteNo="0" devices="tripinfo_3" vType="DEFAULT_VEHTYPE" speedFactor="0.94" vaporized=""/>
    <tripinfo id="4" depart="4.00" departLane="707066366#2_0" departPos="5.10" departSpeed="0.00" departDelay="0.00" arrival="18.00" arrivalLane="-707066366#1_1" arrivalPos="0.20" arrivalSpeed="12.94" duration="14.00" routeLength="77.52" waitingTime="0.00" waitingCount="0" stopTime="0.00" timeLoss="10.12" rerouteNo="0" devices="tripinfo_4" vType="DEFAULT_VEHTYPE" speedFactor="1.01" vaporized=""/>
    <tripinfo id="12" depart="12.00" departLane="946030657_0" departPos="5.10" departSpeed="0.00" departDelay="0.00" arrival="19.00" arrivalLane="684766067#1_0" arrivalPos="6.96" arrivalSpeed="12.55" duration="7.00" routeLength="44.13" waitingTime="0.00" waitingCount="0" stopTime="0.00" timeLoss="4.86" rerouteNo="0" devices="tripinfo_12" vType="DEFAULT_VEHTYPE" speedFactor="0.83" vaporized=""/>
    <tripinfo id="1" depart="1.00" departLane="178091760#0_0" departPos="0.20" departSpeed="0.00" departDelay="0.00" arrival="26.00" arrivalLane="178091745#0_0" arrivalPos="18.76" arrivalSpeed="13.22" duration="25.00" routeLength="210.64" waitingTime="0.00" waitingCount="0" stopTime="0.00" timeLoss="15.31" rerouteNo="0" devices="tripinfo_1" vType="DEFAULT_VEHTYPE" speedFactor="1.06" vaporized=""/>
    <tripinfo id="19" depart="19.00" departLane="711404121#0_0" departPos="4.80" departSpeed="0.00" departDelay="0.00" arrival="28.00" arrivalLane="708573722_2" arrivalPos="0.20" arrivalSpeed="8.90" duration="9.00" routeLength="51.63" waitingTime="0.00" waitingCount="0" stopTime="0.00" timeLoss="5.78" rerouteNo="0" devices="tripinfo_19" vType="DEFAULT_VEHTYPE" speedFactor="1.09" vaporized=""/>
    <tripinfo id="11" depart="11.00" departLane="684766065_0" departPos="5.10" departSpeed="0.00" departDelay="0.00" arrival="32.00" arrivalLane="1288742163_0" arrivalPos="2.59" arrivalSpeed="6.28" duration="21.00" routeLength="273.82" waitingTime="0.00" waitingCount="0" stopTime="0.00" timeLoss="10.63" rerouteNo="0" devices="tripinfo_11" vType="DEFAULT_VEHTYPE" speedFactor="1.03" vaporized=""/>
    <tripinfo id="39" depart="39.00" departLane="178091760#0_0" departPos="0.20" departSpeed="0.00" departDelay="0.00" arrival="40.00" arrivalLane="178091760#0_0" arrivalPos="0.20" arrivalSpeed="1.85" duration="1.00" routeLength="0.00" waitingTime="0.00" waitingCount="0" stopTime="0.00" timeLoss="0.91" rerouteNo="0" devices="tripinfo_39" vType="DEFAULT_VEHTYPE" speedFactor="0.88" vaporized=""/>
    <tripinfo id="14" depart="14.00" departLane="711404120_0" departPos="0.20" departSpeed="0.00" departDelay="0.00" arrival="41.00" arrivalLane="708576350_1" arrivalPos="77.18" arrivalSpeed="24.35" duration="27.00" routeLength="348.92" waitingTime="1.00" waitingCount="1" stopTime="0.00" timeLoss="11.37" rerouteNo="0" devices="tripinfo_14" vType="DEFAULT_VEHTYPE" speedFactor="0.89" vaporized=""/>
    <tripinfo id="22" depart="22.00" departLane="-707066366#3_0" departPos="2.95" departSpeed="0.00" departDelay="0.00" arrival="41.00" arrivalLane="178091745#1_0" arrivalPos="0.20" arrivalSpeed="16.91" duration="19.00" routeLength="185.52" waitingTime="0.00" waitingCount="0" stopTime="0.00" timeLoss="11.03" rerouteNo="0" devices="tripinfo_22" vType="DEFAULT_VEHTYPE" speedFactor="1.05" vaporized=""/>
    <tripinfo id="30" depart="30.00" departLane="9964551#1_0" departPos="5.10" departSpeed="0.00" departDelay="0.00" arrival="43.00" arrivalLane="708576351#2_0" arrivalPos="25.73" arrivalSpeed="26.90" duration="13.00" routeLength="163.16" waitingTime="0.00" waitingCount="0" stopTime="0.00" timeLoss="6.06" rerouteNo="0" devices="tripinfo_30" vType="DEFAULT_VEHTYPE" speedFactor="0.99" vaporized=""/>
    <tripinfo id="20" depart="20.00" departLane="708614256#0_0" departPos="5.10" departSpeed="0.00" departDelay="0.00" arrival="46.00" arrivalLane="-707066366#2_1" arrivalPos="34.89" arrivalSpeed="12.62" duration="26.00" routeLength="255.44" waitingTime="0.00" waitingCount="0" stopTime="0.00" timeLoss="15.87" rerouteNo="0" devices="tripinfo_20" vType="DEFAULT_VEHTYPE" speedFactor="1.03" vaporized=""/>
    <tripinfo id="32" depart="32.00" departLane="711404120_0" departPos="0.20" departSpeed="0.00" departDelay="0.00" arrival="48.00" arrivalLane="708658351#4_1" arrivalPos="18.11" arrivalSpeed="19.91" duration="16.00" routeLength="139.11" waitingTime="1.00" waitingCount="1" stopTime="0.00" timeLoss="7.54" rerouteNo="0" devices="tripinfo_32" vType="DEFAULT_VEHTYPE" speedFactor="0.93" vaporized=""/>
    <tripinfo id="41" depart="41.00" departLane="708573721_0" departPos="3.23" departSpeed="0.00" departDelay="0.00" arrival="56.00" arrivalLane="875229038#0_3" arrivalPos="5.77" arrivalSpeed="23.34" duration="15.00" routeLength="174.76" waitingTime="1.00" waitingCount="1" stopTime="0.00" timeLoss="7.35" rerouteNo="0" devices="tripinfo_41" vType="DEFAULT_VEHTYPE" speedFactor="0.94" vaporized=""/>
    <tripinfo id="42" depart="42.00" departLane="707066366#1_0" departPos="0.20" departSpeed="0.00" departDelay="0.00" arrival="58.00" arrivalLane="178091745#0_0" arrivalPos="18.76" arrivalSpeed="15.14" duration="16.00" routeLength="124.12" waitingTime="1.00" waitingCount="1" stopTime="0.00" timeLoss="7.93" rerouteNo="0" devices="tripinfo_42" vType="DEFAULT_VEHTYPE" speedFactor="0.94" vaporized=""/>
    <tripinfo id="44" depart="44.00" departLane="-707066366#4_0" departPos="5.10" departSpeed="0.00" departDelay="0.00" arrival="59.00" arrivalLane="-707066366#2_0" arrivalPos="34.89" arrivalSpeed="30.64" duration="15.00" routeLength="250.70" waitingTime="0.00" waitingCount="0" stopTime="0.00" timeLoss="7.02" rerouteNo="0" devices="tripinfo_44" vType="DEFAULT_VEHTYPE" speedFactor="1.16" vaporized=""/>
    <tripinfo id="47" depart="47.00" departLane="-707066366#2_0" departPos="5.10" departSpeed="0.00" departDelay="0.00" arrival="59.00" arrivalLane="707066366#2_1" arrivalPos="34.11" arrivalSpeed="12.43" duration="12.00" routeLength="68.58" waitingTime="0.00" waitingCount="0" stopTime="0.00" timeLoss="7.93" rerouteNo="0" devices="tripinfo_47" vType="DEFAULT_VEHTYPE" speedFactor="1.02" vaporized=""/>
    <tripinfo id="64" depart="64.00" departLane="711404121#1_0" departPos="5.10" departSpeed="0.00" departDelay="0.00" arrival="69.00" arrivalLane="711404120_0" arrivalPos="0.20" arrivalSpeed="10.42" duration="5.00" routeLength="22.61" waitingTime="0.00" waitingCount="0" stopTime="0.00" timeLoss="3.71" rerouteNo="0" devices="tripinfo_64" vType="DEFAULT_VEHTYPE" speedFactor="0.89" vaporized=""/>
    <tripinfo id="79" depart="79.00" departLane="178091745#0_0" departPos="5.10" departSpeed="0.00" departDelay="0.00" arrival="83.00" arrivalLane="178091745#0_0" arrivalPos="18.76" arrivalSpeed="7.20" duration="4.00" routeLength="13.66" waitingTime="0.00" waitingCount="0" stopTime="0.00" timeLoss="3.27" rerouteNo="0" devices="tripinfo_79" vType="DEFAULT_VEHTYPE" speedFactor="1.17" vaporized=""/>
    <tripinfo id="63" depart="63.00" departLane="-707066366#0_0" departPos="5.10" departSpeed="0.00" departDelay="0.00" arrival="84.00" arrivalLane="875229039_0" arrivalPos="29.14" arrivalSpeed="20.50" duration="21.00" routeLength="209.23" waitingTime="0.00" waitingCount="0" stopTime="0.00" timeLoss="11.16" rerouteNo="0" devices="tripinfo_63" vType="DEFAULT_VEHTYPE" speedFactor="0.98" vaporized=""/>
    <tripinfo id="66" depart="67.00" departLane="711404121#1_0" departPos="5.10" departSpeed="0.00" departDelay="1.00" arrival="87.00" arrivalLane="875229041_1" arrivalPos="26.57" arrivalSpeed="22.80" duration="20.00" routeLength="197.57" waitingTime="0.00" waitingCount="0" stopTime="0.00" timeLoss="8.25" rerouteNo="0" devices="tripinfo_66" vType="DEFAULT_VEHTYPE" speedFactor="0.83" vaporized=""/>
    <tripinfo id="73" depart="73.00" departLane="708570281#1_0" departPos="0.50" departSpeed="0.00" departDelay="0.00" arrival="87.00" arrivalLane="708658351#1_0" arrivalPos="10.50" arrivalSpeed="18.38" duration="14.00" routeLength="89.50" waitingTime="3.00" waitingCount="1" stopTime="0.00" timeLoss="9.41" rerouteNo="0" devices="tripinfo_73" vType="DEFAULT_VEHTYPE" speedFactor="1.13" vaporized=""/>
    <tripinfo id="75" depart="75.00" departLane="9964551#1_0" departPos="5.10" departSpeed="0.00" departDelay="0.00" arrival="88.00" arrivalLane="708576351#2_0" arrivalPos="25.73" arrivalSpeed="25.74" duration="13.00" routeLength="163.16" waitingTime="0.00" waitingCount="0" stopTime="0.00" timeLoss="6.01" rerouteNo="0" devices="tripinfo_75" vType="DEFAULT_VEHTYPE" speedFactor="0.93" vaporized=""/>
    <tripinfo id="67" depart="67.00" departLane="-707066366#4_0" departPos="5.10" departSpeed="0.00" departDelay="0.00" arrival="93.00" arrivalLane="707072726_0" arrivalPos="41.55" arrivalSpeed="16.09" duration="26.00" routeLength="325.80" waitingTime="0.00" waitingCount="0" stopTime="0.00" timeLoss="12.08" rerouteNo="0" devices="tripinfo_67" vType="DEFAULT_VEHTYPE" speedFactor="0.87" vaporized=""/>
    <tripinfo id="76" depart="76.00" departLane="707066366#3_0" departPos="2.95" departSpeed="0.00" departDelay="0.00" arrival="93.00" arrivalLane="708570281#1_0" arrivalPos="0.50" arrivalSpeed="21.59" duration="17.00" routeLength="180.72" waitingTime="1.00" waitingCount="1" stopTime="0.00" timeLoss="10.60" rerouteNo="0" devices="tripinfo_76" vType="DEFAULT_VEHTYPE" speedFactor="1.18" vaporized=""/>
    <tripinfo id="82" depart="82.00" departLane="711404121#0_0" departPos="4.80" departSpeed="0.00" departDelay="0.00" arrival="100.00" arrivalLane="1012665674_2" arrivalPos="39.92" arrivalSpeed="22.61" duration="18.00" routeLength="126.10" waitingTime="7.00" waitingCount="1" stopTime="0.00" timeLoss="13.27" rerouteNo="0" devices="tripinfo_82" vType="DEFAULT_VEHTYPE" speedFactor="1.02" vaporized=""/>
    <tripinfo id="78" depart="78.00" departLane="684766065_0" departPos="5.10" departSpeed="0.00" departDelay="0.00" arrival="103.00" arrivalLane="708573722_2" arrivalPos="0.20" arrivalSpeed="8.86" duration="25.00" routeLength="337.99" waitingTime="0.00" waitingCount="0" stopTime="0.00" timeLoss="10.59" rerouteNo="0" devices="tripinfo_78" vType="DEFAULT_VEHTYPE" speedFactor="1.01" vaporized=""/>
    <tripinfo id="85" depart="85.00" departLane="875229040_0" departPos="5.10" departSpeed="0.00" departDelay="0.00" arrival="103.00" arrivalLane="708573721_1" arrivalPos="3.23" arrivalSpeed="7.09" duration="18.00" routeLength="152.90" waitingTime="0.00" waitingCount="0" stopTime="0.00" timeLoss="9.16" rerouteNo="0" devices="tripinfo_85" vType="DEFAULT_VEHTYPE" speedFactor="0.97" vaporized=""/>
    <tripinfo id="77" depart="77.00" departLane="1177158045_0" departPos="0.20" departSpeed="0.00" departDelay="0.00" arrival="105.00" arrivalLane="178091745#0_0" arrivalPos="18.76" arrivalSpeed="15.28" duration="28.00" routeLength="223.73" waitingTime="3.00" waitingCount="2" stopTime="0.00" timeLoss="18.30" rerouteNo="0" devices="tripinfo_77" vType="DEFAULT_VEHTYPE" speedFactor="1.15" vaporized=""/>
    <tripinfo id="96" depart="96.00" departLane="178091745#1_0" departPos="0.20" departSpeed="0.00" departDelay="0.00" arrival="107.00" arrivalLane="875229039_0" arrivalPos="29.14" arrivalSpeed="20.73" duration="11.00" routeLength="92.15" waitingTime="2.00" waitingCount="1" stopTime="0.00" timeLoss="7.12" rerouteNo="0" devices="tripinfo_96" vType="DEFAULT_VEHTYPE" speedFactor="1.03" vaporized=""/>
    <tripinfo id="107" depart="107.00" departLane="946030657_0" departPos="5.10" departSpeed="0.00" departDelay="0.00" arrival="114.00" arrivalLane="9964551#1_0" arrivalPos="9.73" arrivalSpeed="13.56" duration="7.00" routeLength="52.01" waitingTime="0.00" waitingCount="0" stopTime="0.00" timeLoss="4.44" rerouteNo="0" devices="tripinfo_107" vType="DEFAULT_VEHTYPE" speedFactor="1.09" vaporized=""/>
    <tripinfo id="103" depart="105.00" departLane="707066366#1_0" departPos="0.20" departSpeed="0.00" departDelay="2.00" arrival="116.00" arrivalLane="-707066366#3_1" arrivalPos="2.95" arrivalSpeed="5.35" duration="11.00" routeLength="62.83" waitingTime="0.00" waitingCount="0" stopTime="0.00" timeLoss="8.07" rerouteNo="0" devices="tripinfo_103" vType="DEFAULT_VEHTYPE" speedFactor="1.09" vaporized=""/>
    <tripinfo id="106" depart="106.00" departLane="707072725#0_0" departPos="1.11" departSpeed="0.00" departDelay="0.00" arrival="127.00" arrivalLane="707066366#4_0" arrivalPos="197.77" arrivalSpeed="28.54" duration="21.00" routeLength="380.13" waitingTime="0.00" waitingCount="0" stopTime="0.00" timeLoss="7.64" rerouteNo="0" devices="tripinfo_106" vType="DEFAULT_VEHTYPE" speedFactor="1.04" vaporized=""/>
    <tripinfo id="127" depart="127.00" departLane="9964551#1_0" departPos="5.10" departSpeed="0.00" departDelay="0.00" arrival="129.00" arrivalLane="9964551#1_0" arrivalPos="9.73" arrivalSpeed="4.57" duration="2.00" routeLength="4.63" waitingTime="0.00" waitingCount="0" stopTime="0.00" timeLoss="1.74" rerouteNo="0" devices="tripinfo_127" vType="DEFAULT_VEHTYPE" speedFactor="1.17" vaporized=""/>
    <tripinfo id="119" depart="119.00" departLane="708573722_0" departPos="0.20" departSpeed="0.00" departDelay="0.00" arrival="131.00" arrivalLane="708576351#0_1" arrivalPos="77.80" arrivalSpeed="24.31" duration="12.00" routeLength="135.82" waitingTime="0.00" waitingCount="0" stopTime="0.00" timeLoss="5.81" rerouteNo="0" devices="tripinfo_119" vType="DEFAULT_VEHTYPE" speedFactor="0.90" vaporized=""/>
    <tripinfo id="121" depart="121.00" departLane="708570281#0_0" departPos="5.10" departSpeed="0.00" departDelay="0.00" arrival="141.00" arrivalLane="875229041_0" arrivalPos="26.57" arrivalSpeed="23.12" duration="20.00" routeLength="199.97" waitingTime="0.00" waitingCount="0" stopTime="0.00" timeLoss="8.89" rerouteNo="0" devices="tripinfo_121" vType="DEFAULT_VEHTYPE" speedFactor="0.85" vaporized=""/>
    <tripinfo id="137" depart="137.00" departLane="1210949543#0_0" departPos="5.10" departSpeed="0.00" departDelay="0.00" arrival="143.00" arrivalLane="1210949543#1_0" arrivalPos="18.94" arrivalSpeed="12.36" duration="6.00" routeLength="30.26" waitingTime="0.00" waitingCount="0" stopTime="0.00" timeLoss="4.10" rerouteNo="0" devices="tripinfo_137" vType="DEFAULT_VEHTYPE" speedFactor="1.00" vaporized=""/>
    <tripinfo id="135" depart="135.00" departLane="711401502_0" departPos="5.10" departSpeed="0.00" departDelay="0.00" arrival="145.00" arrivalLane="219977622#1_0" arrivalPos="0.20" arrivalSpeed="9.67" duration="10.00" routeLength="66.29" waitingTime="0.00" waitingCount="0" stopTime="0.00" timeLoss="6.26" rerouteNo="0" devices="tripinfo_135" vType="DEFAULT_VEHTYPE" speedFactor="1.00" vaporized=""/>
    <tripinfo id="128" depart="128.00" departLane="-707066366#3_0" departPos="2.95" departSpeed="0.00" departDelay="0.00" arrival="146.00" arrivalLane="178091745#0_0" arrivalPos="18.76" arrivalSpeed="13.78" duration="18.00" routeLength="172.64" waitingTime="0.00" waitingCount="0" stopTime="0.00" timeLoss="9.90" rerouteNo="0" devices="tripinfo_128" vType="DEFAULT_VEHTYPE" speedFactor="1.02" vaporized=""/>
    <tripinfo id="143" depart="143.00" departLane="711404120_0" departPos="0.20" departSpeed="0.00" departDelay="0.00" arrival="150.00" arrivalLane="1177158045_1" arrivalPos="0.20" arrivalSpeed="6.35" duration="7.00" routeLength="29.36" waitingTime="1.00" waitingCount="1" stopTime="0.00" timeLoss="3.71" rerouteNo="0" devices="tripinfo_143" vType="DEFAULT_VEHTYPE" speedFactor="1.02" vaporized=""/>
    <tripinfo id="152" depart="152.00" departLane="1210949543#1_0" departPos="5.10" departSpeed="0.00" departDelay="0.00" arrival="156.00" arrivalLane="1210949543#1_0" arrivalPos="18.94" arrivalSpeed="7.89" duration="4.00" routeLength="13.84" waitingTime="0.00" waitingCount="0" stopTime="0.00" timeLoss="3.20" rerouteNo="0" devices="tripinfo_152" vType="DEFAULT_VEHTYPE" speedFactor="1.08" vaporized=""/>
    <tripinfo id="148" depart="148.00" departLane="707066366#3_0" departPos="2.95" departSpeed="0.00" departDelay="0.00" arrival="164.00" arrivalLane="-707066366#0_0" arrivalPos="9.57" arrivalSpeed="13.47" duration="16.00" routeLength="80.54" waitingTime="1.00" waitingCount="1" stopTime="0.00" timeLoss="12.04" rerouteNo="0" devices="tripinfo_148" vType="DEFAULT_VEHTYPE" speedFactor="0.97" vaporized=""/>
    <tripinfo id="153" depart="153.00" departLane="219977622#0_0" departPos="5.10" departSpeed="0.00" departDelay="0.00" arrival="166.00" arrivalLane="875229038#0_0" arrivalPos="5.77" arrivalSpeed="22.45" duration="13.00" routeLength="139.22" waitingTime="0.00" waitingCount="0" stopTime="0.00" timeLoss="7.89" rerouteNo="0" devices="tripinfo_153" vType="DEFAULT_VEHTYPE" speedFactor="1.12" vaporized=""/>
    <tripinfo id="167" depart="167.00" departLane="711404121#1_0" departPos="5.10" departSpeed="0.00" departDelay="0.00" arrival="170.00" arrivalLane="711404121#1_0" arrivalPos="12.60" arrivalSpeed="5.50" duration="3.00" routeLength="7.50" waitingTime="0.00" waitingCount="0" stopTime="0.00" timeLoss="2.55" rerouteNo="0" devices="tripinfo_167" vType="DEFAULT_VEHTYPE" speedFactor="0.88" vaporized=""/>
    <tripinfo id="173" depart="173.00" departLane="946030657_0" departPos="5.10" departSpeed="0.00" departDelay="0.00" arrival="193.00" arrivalLane="219977622#0_3" arrivalPos="9.80" arrivalSpeed="12.41" duration="20.00" routeLength="119.24" waitingTime="0.00" waitingCount="0" stopTime="0.00" timeLoss="12.20" rerouteNo="0" devices="tripinfo_173" vType="DEFAULT_VEHTYPE" speedFactor="0.91" vaporized=""/>
    <tripinfo id="163" depart="163.00" departLane="684766065_0" departPos="5.10" departSpeed="0.00" departDelay="0.00" arrival="194.00" arrivalLane="875229039_2" arrivalPos="29.14" arrivalSpeed="20.16" duration="31.00" routeLength="373.79" waitingTime="0.00" waitingCount="0" stopTime="0.00" timeLoss="14.30" rerouteNo="0" devices="tripinfo_163" vType="DEFAULT_VEHTYPE" speedFactor="0.94" vaporized=""/>
    <tripinfo id="185" depart="185.00" departLane="708570281#1_0" departPos="0.50" departSpeed="0.00" departDelay="0.00" arrival="204.00" arrivalLane="708658351#0_0" arrivalPos="12.94" arrivalSpeed="12.22" duration="19.00" routeLength="71.27" waitingTime="4.00" waitingCount="1" stopTime="0.00" timeLoss="14.84" rerouteNo="0" devices="tripinfo_185" vType="DEFAULT_VEHTYPE" speedFactor="1.02" vaporized=""/>
    <tripinfo id="187" depart="187.00" departLane="684766067#1_0" departPos="5.10" departSpeed="0.00" departDelay="0.00" arrival="206.00" arrivalLane="1012665674_3" arrivalPos="39.92" arrivalSpeed="17.99" duration="19.00" routeLength="135.41" waitingTime="0.00" waitingCount="0" stopTime="0.00" timeLoss="11.41" rerouteNo="0" devices="tripinfo_187" vType="DEFAULT_VEHTYPE" speedFactor="0.97" vaporized=""/>
    <tripinfo id="190" depart="190.00" departLane="708614256#1_0" departPos="2.91" departSpeed="0.00" departDelay="0.00" arrival="206.00" arrivalLane="219977622#1_3" arrivalPos="0.20" arrivalSpeed="12.58" duration="16.00" routeLength="67.77" waitingTime="3.00" waitingCount="2" stopTime="0.00" timeLoss="12.53" rerouteNo="0" devices="tripinfo_190" vType="DEFAULT_VEHTYPE" speedFactor="0.94" vaporized=""/>
    <tripinfo id="209" depart="209.00" departLane="711404120_0" departPos="0.20" departSpeed="0.00" departDelay="0.00" arrival="218.00" arrivalLane="1012665674_2" arrivalPos="39.92" arrivalSpeed="17.80" duration="9.00" routeLength="89.88" waitingTime="0.00" waitingCount="0" stopTime="0.00" timeLoss="5.85" rerouteNo="0" devices="tripinfo_209" vType="DEFAULT_VEHTYPE" speedFactor="1.03" vaporized=""/>
    <tripinfo id="200" depart="200.00" departLane="707066366#3_0" departPos="2.95" departSpeed="0.00" departDelay="0.00" arrival="221.00" arrivalLane="178091745#0_0" arrivalPos="18.76" arrivalSpeed="14.06" duration="21.00" routeLength="180.27" waitingTime="2.00" waitingCount="1" stopTime="0.00" timeLoss="12.15" rerouteNo="0" devices="tripinfo_200" vType="DEFAULT_VEHTYPE" speedFactor="1.03" vaporized=""/>
    <tripinfo id="214" depart="214.00" departLane="708658351#1_0" departPos="5.10" departSpeed="0.00" departDelay="0.00" arrival="221.00" arrivalLane="708658351#3_0" arrivalPos="12.86" arrivalSpeed="12.20" duration="7.00" routeLength="44.17" waitingTime="0.00" waitingCount="0" stopTime="0.00" timeLoss="5.13" rerouteNo="0" devices="tripinfo_214" vType="DEFAULT_VEHTYPE" speedFactor="0.97" vaporized=""/>
    <tripinfo id="212" depart="214.00" departLane="707072726_0" departPos="5.10" departSpeed="0.00" departDelay="2.00" arrival="225.00" arrivalLane="178091745#1_0" arrivalPos="0.20" arrivalSpeed="14.83" duration="11.00" routeLength="102.41" waitingTime="0.00" waitingCount="0" stopTime="0.00" timeLoss="6.33" rerouteNo="0" devices="tripinfo_212" vType="DEFAULT_VEHTYPE" speedFactor="1.02" vaporized=""/>
    <tripinfo id="203" depart="203.00" departLane="-707066366#4_0" departPos="5.10" departSpeed="0.00" departDelay="0.00" arrival="229.00" arrivalLane="708570281#1_0" arrivalPos="0.50" arrivalSpeed="20.05" duration="26.00" routeLength="379.33" waitingTime="0.00" waitingCount="0" stopTime="0.00" timeLoss="12.36" rerouteNo="0" devices="tripinfo_203" vType="DEFAULT_VEHTYPE" speedFactor="1.01" vaporized=""/>
    <tripinfo id="221" depart="221.00" departLane="708573722_0" departPos="0.20" departSpeed="0.00" departDelay="0.00" arrival="236.00" arrivalLane="875229041_0" arrivalPos="26.57" arrivalSpeed="25.73" duration="15.00" routeLength="165.87" waitingTime="2.00" waitingCount="1" stopTime="0.00" timeLoss="7.19" rerouteNo="0" devices="tripinfo_221" vType="DEFAULT_VEHTYPE" speedFactor="1.00" vaporized=""/>
    <tripinfo id="222" depart="222.00" departLane="875229037_0" departPos="5.10" departSpeed="0.00" departDelay="0.00" arrival="242.00" arrivalLane="708576351#0_0" arrivalPos="77.80" arrivalSpeed="23.35" duration="20.00" routeLength="216.20" waitingTime="0.00" waitingCount="0" stopTime="0.00" timeLoss="11.47" rerouteNo="0" devices="tripinfo_222" vType="DEFAULT_VEHTYPE" speedFactor="1.04" vaporized=""/>
    <tripinfo id="225" depart="225.00" departLane="875229037_0" departPos="5.10" departSpeed="0.00" departDelay="0.00" arrival="247.00" arrivalLane="708658351#2_1" arrivalPos="8.28" arrivalSpeed="15.61" duration="22.00" routeLength="178.31" waitingTime="0.00" waitingCount="0" stopTime="0.00" timeLoss="15.70" rerouteNo="0" devices="tripinfo_225" vType="DEFAULT_VEHTYPE" speedFactor="1.02" vaporized=""/>
    <tripinfo id="230" depart="230.00" departLane="-707066366#3_0" departPos="2.95" departSpeed="0.00" departDelay="0.00" arrival="250.00" arrivalLane="219977622#0_0" arrivalPos="9.80" arrivalSpeed="11.69" duration="20.00" routeLength="193.40" waitingTime="0.00" waitingCount="0" stopTime="0.00" timeLoss="12.06" rerouteNo="0" devices="tripinfo_230" vType="DEFAULT_VEHTYPE" speedFactor="1.02" vaporized=""/>
    <tripinfo id="239" depart="239.00" departLane="711404121#0_0" departPos="4.80" departSpeed="0.00" departDelay="0.00" arrival="253.00" arrivalLane="708658351#3_1" arrivalPos="12.86" arrivalSpeed="14.45" duration="14.00" routeLength="72.74" waitingTime="1.00" waitingCount="1" stopTime="0.00" timeLoss="10.47" rerouteNo="0" devices="tripinfo_239" vType="DEFAULT_VEHTYPE" speedFactor="1.09" vaporized=""/>
    <tripinfo id="241" depart="241.00" departLane="684766067#0_0" departPos="2.12" departSpeed="0.00" departDelay="0.00" arrival="256.00" arrivalLane="708658351#2_1" arrivalPos="8.28" arrivalSpeed="18.21" duration="15.00" routeLength="100.66" waitingTime="0.00" waitingCount="0" stopTime="0.00" timeLoss="11.00" rerouteNo="0" devices="tripinfo_241" vType="DEFAULT_VEHTYPE" speedFactor="1.01" vaporized=""/>
    <tripinfo id="246" depart="246.00" departLane="707066366#3_0" departPos="2.95" departSpeed="0.00" departDelay="0.00" arrival="259.00" arrivalLane="-707066366#1_0" arrivalPos="0.20" arrivalSpeed="11.72" duration="13.00" routeLength="61.03" waitingTime="1.00" waitingCount="1" stopTime="0.00" timeLoss="10.34" rerouteNo="0" devices="tripinfo_246" vType="DEFAULT_VEHTYPE" speedFactor="1.10" vaporized=""/>
    <tripinfo id="244" depart="244.00" departLane="708573719#0_0" departPos="0.31" departSpeed="0.00" departDelay="0.00" arrival="262.00" arrivalLane="708576350_0" arrivalPos="77.18" arrivalSpeed="30.44" duration="18.00" routeLength="311.88" waitingTime="0.00" waitingCount="0" stopTime="0.00" timeLoss="7.62" rerouteNo="0" devices="tripinfo_244" vType="DEFAULT_VEHTYPE" speedFactor="1.12" vaporized=""/>
    <tripinfo id="258" depart="258.00" departLane="178091745#1_0" departPos="0.20" departSpeed="0.00" departDelay="0.00" arrival="265.00" arrivalLane="1012665674_0" arrivalPos="39.92" arrivalSpeed="14.02" duration="7.00" routeLength="53.49" waitingTime="0.00" waitingCount="0" stopTime="0.00" timeLoss="4.06" rerouteNo="0" devices="tripinfo_258" vType="DEFAULT_VEHTYPE" speedFactor="0.89" vaporized=""/>
    <tripinfo id="267" depart="267.00" departLane="708614256#0_0" departPos="5.10" departSpeed="0.00" departDelay="0.00" arrival="279.00" arrivalLane="708658351#3_0" arrivalPos="12.86" arrivalSpeed="18.64" duration="12.00" routeLength="98.19" waitingTime="0.00" waitingCount="0" stopTime="0.00" timeLoss="7.29" rerouteNo="0" devices="tripinfo_267" vType="DEFAULT_VEHTYPE" speedFactor="1.03" vaporized=""/>
    <tripinfo id="237" depart="237.00" departLane="707066366#2_0" departPos="5.10" departSpeed="0.00" departDelay="0.00" arrival="281.00" arrivalLane="875229038#1_1" arrivalPos="219.95" arrivalSpeed="24.62" duration="44.00" routeLength="568.56" waitingTime="0.00" waitingCount="0" stopTime="0.00" timeLoss="17.82" rerouteNo="0" devices="tripinfo_237" vType="DEFAULT_VEHTYPE" speedFactor="0.92" vaporized=""/>
    <tripinfo id="282" depart="282.00" departLane="711404120_0" departPos="0.20" departSpeed="0.00" departDelay="0.00" arrival="283.00" arrivalLane="711404120_0" arrivalPos="0.20" arrivalSpeed="1.33" duration="1.00" routeLength="0.00" waitingTime="0.00" waitingCount="0" stopTime="0.00" timeLoss="0.95" rerouteNo="0" devices="tripinfo_282" vType="DEFAULT_VEHTYPE" speedFactor="1.01" vaporized=""/>
    <tripinfo id="277" depart="277.00" departLane="711404120_0" departPos="0.20" departSpeed="0.00" departDelay="0.00" arrival="304.00" arrivalLane="708576350_1" arrivalPos="77.18" arrivalSpeed="22.90" duration="27.00" routeLength="348.92" waitingTime="2.00" waitingCount="2" stopTime="0.00" timeLoss="10.89" rerouteNo="0" devices="tripinfo_277" vType="DEFAULT_VEHTYPE" speedFactor="0.87" vaporized=""/>
    <tripinfo id="297" depart="297.00" departLane="684766065_0" departPos="5.10" departSpeed="0.00" departDelay="0.00" arrival="312.00" arrivalLane="875229037_0" arrivalPos="38.84" arrivalSpeed="25.51" duration="15.00" routeLength="220.02" waitingTime="0.00" waitingCount="0" stopTime="0.00" timeLoss="6.37" rerouteNo="0" devices="tripinfo_297" vType="DEFAULT_VEHTYPE" speedFactor="0.94" vaporized=""/>
    <tripinfo id="323" depart="323.00" departLane="711404121#1_0" departPos="5.10" departSpeed="0.00" departDelay="0.00" arrival="330.00" arrivalLane="708573722_2" arrivalPos="0.20" arrivalSpeed="7.89" duration="7.00" routeLength="38.02" waitingTime="0.00" waitingCount="0" stopTime="0.00" timeLoss="4.05" rerouteNo="0" devices="tripinfo_323" vType="DEFAULT_VEHTYPE" speedFactor="0.96" vaporized=""/>
    <tripinfo id="338" depart="338.00" departLane="708658351#1_0" departPos="5.10" departSpeed="0.00" departDelay="0.00" arrival="348.00" arrivalLane="875229041_0" arrivalPos="26.57" arrivalSpeed="19.75" duration="10.00" routeLength="103.13" waitingTime="0.00" waitingCount="0" stopTime="0.00" timeLoss="6.08" rerouteNo="0" devices="tripinfo_338" vType="DEFAULT_VEHTYPE" speedFactor="1.00" vaporized=""/>
    <tripinfo id="369" depart="369.00" departLane="684766067#0_0" departPos="2.12" departSpeed="0.00" departDelay="0.00" arrival="373.00" arrivalLane="684766067#1_0" arrivalPos="6.96" arrivalSpeed="8.70" duration="4.00" routeLength="14.98" waitingTime="0.00" waitingCount="0" stopTime="0.00" timeLoss="3.17" rerouteNo="0" devices="tripinfo_369" vType="DEFAULT_VEHTYPE" speedFactor="0.96" vaporized=""/>
    <tripinfo id="377" depart="377.00" departLane="9964551#1_0" departPos="5.10" departSpeed="0.00" departDelay="0.00" arrival="392.00" arrivalLane="708576351#3_0" arrivalPos="43.88" arrivalSpeed="28.39" duration="15.00" routeLength="216.44" waitingTime="0.00" waitingCount="0" stopTime="0.00" timeLoss="6.94" rerouteNo="0" devices="tripinfo_377" vType="DEFAULT_VEHTYPE" speedFactor="1.06" vaporized=""/>